LAMMPS data file via write_data, version 29 Aug 2024, timestep = 0, units = real

198 atoms
4 atom types
5 bonds
1 bond types
4 angles
1 angle types
3 dihedrals
1 dihedral types

0 12.66139 xlo xhi
0 12.66139 ylo yhi
0 26.40612 zlo zhi

Masses

1 15.035
2 14.027
3 28.08499999277529
4 15.99899999588435

Pair Coeffs # lj/cut

1 0.194746 3.75
2 0.0914114 3.095
3 0.0437185 2.3
4 0.105322 3.3

Bond Coeffs # harmonic

1 337 1.54

Angle Coeffs # harmonic

1 62.1001 114

Dihedral Coeffs # opls

1 1.41103 -0.271015 3.14503 0

Atoms # full

1 1 1 0 7.72247878 10.26882036 11.49852347 0 0 0
2 1 2 0 9.13176639 10.26639302 10.87763502 0 0 0
3 1 2 0 9.76529888 8.90797901 10.5241551 0 0 0
4 1 2 0 9.22555173 8.12591762 9.31227516 0 0 0
5 1 2 0 9.69632893 6.66383116 9.20149641 0 0 0
6 1 1 0 8.96974559 6.03700749 7.99701772 0 0 0
7 2 4 -0.75 4.25713916 8.43906966 1.72035872 0 0 0
8 2 4 -0.75 8.40425084 4.22232034 14.92341872 0 0 0
9 2 4 -0.75 4.22232034 4.25713916 8.32188872 0 0 0
10 2 4 -0.75 8.43906966 8.40425084 21.52494872 0 0 0
11 2 4 -0.75 8.40425084 8.43906966 24.68576128 0 0 0
12 2 4 -0.75 4.25713916 4.22232034 11.48270128 0 0 0
13 2 4 -0.75 8.43906966 4.25713916 18.08423128 0 0 0
14 2 4 -0.75 4.22232034 8.40425084 4.88117128 0 0 0
15 2 4 -0.75 4.23574141 10.34840727 26.30445644 0 0 0
16 2 4 -0.75 8.42564859 2.31298273 13.10139644 0 0 0
17 2 4 -0.75 2.31298273 4.23574141 6.49986644 0 0 0
18 2 4 -0.75 10.34840727 8.42564859 19.70292644 0 0 0
19 2 4 -0.75 8.42564859 10.34840727 0.10166356 0 0 0
20 2 4 -0.75 4.23574141 2.31298273 13.30472356 0 0 0
21 2 4 -0.75 10.34840727 4.23574141 19.90625356 0 0 0
22 2 4 -0.75 2.31298273 8.42564859 6.70319356 0 0 0
23 2 4 -0.75 2.96694352 10.69343015 2.18616267 0 0 0
24 2 4 -0.75 9.69444648 1.96795985 15.38922267 0 0 0
25 2 4 -0.75 1.96795985 2.96694352 8.78769267 0 0 0
26 2 4 -0.75 10.69343015 9.69444648 21.99075267 0 0 0
27 2 4 -0.75 9.69444648 10.69343015 24.21995733 0 0 0
28 2 4 -0.75 2.96694352 1.96795985 11.01689733 0 0 0
29 2 4 -0.75 10.69343015 2.96694352 17.61842733 0 0 0
30 2 4 -0.75 1.96795985 9.69444648 4.41536733 0 0 0
31 2 4 -0.75 5.60494413 10.67051304 2.13070982 0 0 0
32 2 4 -0.75 7.05644587 1.99087696 15.33376982 0 0 0
33 2 4 -0.75 1.99087696 5.60494413 8.73223982 0 0 0
34 2 4 -0.75 10.67051304 7.05644587 21.93529982 0 0 0
35 2 4 -0.75 7.05644587 10.67051304 24.27541018 0 0 0
36 2 4 -0.75 5.60494413 1.99087696 11.07235018 0 0 0
37 2 4 -0.75 10.67051304 5.60494413 17.67388018 0 0 0
38 2 4 -0.75 1.99087696 7.05644587 4.47082018 0 0 0
39 2 4 -0.75 4.23599464 6.53479661 26.2999674 0 0 0
40 2 4 -0.75 8.42539536 6.12659339 13.0969074 0 0 0
41 2 4 -0.75 6.12659339 4.23599464 6.4953774 0 0 0
42 2 4 -0.75 6.53479661 8.42539536 19.6984374 0 0 0
43 2 4 -0.75 8.42539536 6.53479661 0.1061526 0 0 0
44 2 4 -0.75 4.23599464 6.12659339 13.3092126 0 0 0
45 2 4 -0.75 6.53479661 4.23599464 19.9107426 0 0 0
46 2 4 -0.75 6.12659339 8.42539536 6.7076826 0 0 0
47 2 4 -0.75 2.97086855 6.18154383 2.18220176 0 0 0
48 2 4 -0.75 9.69052145 6.47984617 15.38526176 0 0 0
49 2 4 -0.75 6.47984617 2.97086855 8.78373176 0 0 0
50 2 4 -0.75 6.18154383 9.69052145 21.98679176 0 0 0
51 2 4 -0.75 9.69052145 6.18154383 24.22391824 0 0 0
52 2 4 -0.75 2.97086855 6.47984617 11.02085824 0 0 0
53 2 4 -0.75 6.18154383 2.97086855 17.62238824 0 0 0
54 2 4 -0.75 6.47984617 9.69052145 4.41932824 0 0 0
55 2 4 -0.75 5.60912238 6.20889243 2.12384423 0 0 0
56 2 4 -0.75 7.05226762 6.45249757 15.32690423 0 0 0
57 2 4 -0.75 6.45249757 5.60912238 8.72537423 0 0 0
58 2 4 -0.75 6.20889243 7.05226762 21.92843423 0 0 0
59 2 4 -0.75 7.05226762 6.20889243 24.28227577 0 0 0
60 2 4 -0.75 5.60912238 6.45249757 11.07921577 0 0 0
61 2 4 -0.75 6.20889243 5.60912238 17.68074577 0 0 0
62 2 4 -0.75 6.45249757 7.05226762 4.47768577 0 0 0
63 2 4 -0.75 9.10239988 8.44388099 1.79799271 0 0 0
64 2 4 -0.75 3.55899012 4.21750901 15.00105271 0 0 0
65 2 4 -0.75 4.21750901 9.10239988 8.39952271 0 0 0
66 2 4 -0.75 8.44388099 3.55899012 21.60258271 0 0 0
67 2 4 -0.75 3.55899012 8.44388099 24.60812729 0 0 0
68 2 4 -0.75 9.10239988 4.21750901 11.40506729 0 0 0
69 2 4 -0.75 8.44388099 9.10239988 18.00659729 0 0 0
70 2 4 -0.75 4.21750901 3.55899012 4.80353729 0 0 0
71 2 4 -0.75 10.57783166 10.62315944 1.60390773 0 0 0
72 2 4 -0.75 2.08355834 2.03823056 14.80696773 0 0 0
73 2 4 -0.75 2.03823056 10.57783166 8.20543773 0 0 0
74 2 4 -0.75 10.62315944 2.08355834 21.40849773 0 0 0
75 2 4 -0.75 2.08355834 10.62315944 24.80221227 0 0 0
76 2 4 -0.75 10.57783166 2.03823056 11.59915227 0 0 0
77 2 4 -0.75 10.62315944 10.57783166 18.20068227 0 0 0
78 2 4 -0.75 2.03823056 2.08355834 4.99762227 0 0 0
79 2 4 -0.75 8.18039747 10.74622815 2.69923359 0 0 0
80 2 4 -0.75 4.48099253 1.91516185 15.90229359 0 0 0
81 2 4 -0.75 1.91516185 8.18039747 9.30076359 0 0 0
82 2 4 -0.75 10.74622815 4.48099253 22.50382359 0 0 0
83 2 4 -0.75 4.48099253 10.74622815 23.70688641 0 0 0
84 2 4 -0.75 8.18039747 1.91516185 10.50382641 0 0 0
85 2 4 -0.75 10.74622815 8.18039747 17.10535641 0 0 0
86 2 4 -0.75 1.91516185 4.48099253 3.90229641 0 0 0
87 2 4 -0.75 10.57973087 6.26612191 1.60654834 0 0 0
88 2 4 -0.75 2.08165913 6.39526809 14.80960834 0 0 0
89 2 4 -0.75 6.39526809 10.57973087 8.20807834 0 0 0
90 2 4 -0.75 6.26612191 2.08165913 21.41113834 0 0 0
91 2 4 -0.75 2.08165913 6.26612191 24.79957166 0 0 0
92 2 4 -0.75 10.57973087 6.39526809 11.59651166 0 0 0
93 2 4 -0.75 6.26612191 10.57973087 18.19804166 0 0 0
94 2 4 -0.75 6.39526809 2.08165913 4.99498166 0 0 0
95 2 4 -0.75 8.18267652 6.1430532 2.70451481 0 0 0
96 2 4 -0.75 4.47871348 6.5183368 15.90757481 0 0 0
97 2 4 -0.75 6.5183368 8.18267652 9.30604481 0 0 0
98 2 4 -0.75 6.1430532 4.47871348 22.50910481 0 0 0
99 2 4 -0.75 4.47871348 6.1430532 23.70160519 0 0 0
100 2 4 -0.75 8.18267652 6.5183368 10.49854519 0 0 0
101 2 4 -0.75 6.1430532 8.18267652 17.10007519 0 0 0
102 2 4 -0.75 6.5183368 4.47871348 3.89701519 0 0 0
103 2 4 -0.75 0 10.40120527 0 0 0 0
104 2 4 -0.75 0 2.26018473 13.20306 0 0 0
105 2 4 -0.75 2.26018473 0 6.60153 0 0 0
106 2 4 -0.75 10.40120527 0 19.80459 0 0 0
107 2 4 -0.75 12.06681113 8.44540036 1.66913085 0 0 0
108 2 4 -0.75 0.59457887 4.21598964 14.87219085 0 0 0
109 2 4 -0.75 4.21598964 12.06681113 8.27066085 0 0 0
110 2 4 -0.75 8.44540036 0.59457887 21.47372085 0 0 0
111 2 4 -0.75 0.59457887 8.44540036 24.73698915 0 0 0
112 2 4 -0.75 12.06681113 4.21598964 11.53392915 0 0 0
113 2 4 -0.75 8.44540036 12.06681113 18.13545915 0 0 0
114 2 4 -0.75 4.21598964 0.59457887 4.93239915 0 0 0
115 2 4 -0.75 0.36008993 10.72521024 2.59413723 0 0 0
116 2 4 -0.75 12.30130007 1.93617976 15.79719723 0 0 0
117 2 4 -0.75 1.93617976 0.36008993 9.19566723 0 0 0
118 2 4 -0.75 10.72521024 12.30130007 22.39872723 0 0 0
119 2 4 -0.75 12.30130007 10.72521024 23.81198277 0 0 0
120 2 4 -0.75 0.36008993 1.93617976 10.60892277 0 0 0
121 2 4 -0.75 10.72521024 0.36008993 17.21045277 0 0 0
122 2 4 -0.75 1.93617976 12.30130007 4.00739277 0 0 0
123 2 4 -0.75 0 6.48972206 0 0 0 0
124 2 4 -0.75 0 6.17166794 13.20306 0 0 0
125 2 4 -0.75 6.17166794 0 6.60153 0 0 0
126 2 4 -0.75 6.48972206 0 19.80459 0 0 0
127 2 4 -0.75 0.36388835 6.16710984 2.59334505 0 0 0
128 2 4 -0.75 12.29750165 6.49428016 15.79640505 0 0 0
129 2 4 -0.75 6.49428016 0.36388835 9.19487505 0 0 0
130 2 4 -0.75 6.16710984 12.29750165 22.39793505 0 0 0
131 2 4 -0.75 12.29750165 6.16710984 23.81277495 0 0 0
132 2 4 -0.75 0.36388835 6.49428016 10.60971495 0 0 0
133 2 4 -0.75 6.16710984 0.36388835 17.21124495 0 0 0
134 2 4 -0.75 6.49428016 12.29750165 4.00818495 0 0 0
135 2 3 1.5 4.26612875 10.03757015 1.48375988 0 0 0
136 2 3 1.5 8.39526125 2.62381985 14.68681988 0 0 0
137 2 3 1.5 2.62381985 4.26612875 8.08528988 0 0 0
138 2 3 1.5 10.03757015 8.39526125 21.28834988 0 0 0
139 2 3 1.5 8.39526125 10.03757015 24.92236012 0 0 0
140 2 3 1.5 4.26612875 2.62381985 11.71930012 0 0 0
141 2 3 1.5 10.03757015 4.26612875 18.32083012 0 0 0
142 2 3 1.5 2.62381985 8.39526125 5.11777012 0 0 0
143 2 3 1.5 4.26828118 6.84107563 1.48032709 0 0 0
144 2 3 1.5 8.39310882 5.82031437 14.68338709 0 0 0
145 2 3 1.5 5.82031437 4.26828118 8.08185709 0 0 0
146 2 3 1.5 6.84107563 8.39310882 21.28491709 0 0 0
147 2 3 1.5 8.39310882 6.84107563 24.92579291 0 0 0
148 2 3 1.5 4.26828118 5.82031437 11.72273291 0 0 0
149 2 3 1.5 6.84107563 4.26828118 18.32426291 0 0 0
150 2 3 1.5 5.82031437 8.39310882 5.12120291 0 0 0
151 2 3 1.5 9.07150609 10.04048227 1.55056737 0 0 0
152 2 3 1.5 3.58988391 2.62090773 14.75362737 0 0 0
153 2 3 1.5 2.62090773 9.07150609 8.15209737 0 0 0
154 2 3 1.5 10.04048227 3.58988391 21.35515737 0 0 0
155 2 3 1.5 3.58988391 10.04048227 24.85555263 0 0 0
156 2 3 1.5 9.07150609 2.62090773 11.65249263 0 0 0
157 2 3 1.5 10.04048227 9.07150609 18.25402263 0 0 0
158 2 3 1.5 2.62090773 3.58988391 5.05096263 0 0 0
159 2 3 1.5 9.07264562 6.84677326 1.5537361 0 0 0
160 2 3 1.5 3.58874438 5.81461674 14.7567961 0 0 0
161 2 3 1.5 5.81461674 9.07264562 8.1552661 0 0 0
162 2 3 1.5 6.84677326 3.58874438 21.3583261 0 0 0
163 2 3 1.5 3.58874438 6.84677326 24.8523839 0 0 0
164 2 3 1.5 9.07264562 5.81461674 11.6493239 0 0 0
165 2 3 1.5 6.84677326 9.07264562 18.2508539 0 0 0
166 2 3 1.5 5.81461674 3.58874438 5.0477939 0 0 0
167 2 3 1.5 12.08213141 10.04858556 1.46685997 0 0 0
168 2 3 1.5 0.57925859 2.61280444 14.66991997 0 0 0
169 2 3 1.5 2.61280444 12.08213141 8.06838997 0 0 0
170 2 3 1.5 10.04858556 0.57925859 21.27144997 0 0 0
171 2 3 1.5 0.57925859 10.04858556 24.93926003 0 0 0
172 2 3 1.5 12.08213141 2.61280444 11.73620003 0 0 0
173 2 3 1.5 10.04858556 12.08213141 18.33773003 0 0 0
174 2 3 1.5 2.61280444 0.57925859 5.13467003 0 0 0
175 2 3 1.5 12.08327093 6.84221516 1.46712403 0 0 0
176 2 3 1.5 0.57811907 5.81917484 14.67018403 0 0 0
177 2 3 1.5 5.81917484 12.08327093 8.06865403 0 0 0
178 2 3 1.5 6.84221516 0.57811907 21.27171403 0 0 0
179 2 3 1.5 0.57811907 6.84221516 24.93899597 0 0 0
180 2 3 1.5 12.08327093 5.81917484 11.73593597 0 0 0
181 2 3 1.5 6.84221516 12.08327093 18.33746597 0 0 0
182 2 3 1.5 5.81917484 0.57811907 5.13440597 0 0 0
183 2 3 1.5 1.80779326 10.85359674 3.300765 0 0 0
184 2 3 1.5 10.85359674 1.80779326 16.503825 0 0 0
185 2 3 1.5 1.80779326 1.80779326 9.902295 0 0 0
186 2 3 1.5 10.85359674 10.85359674 23.105355 0 0 0
187 2 3 1.5 6.68977202 10.85106446 3.31449618 0 0 0
188 2 3 1.5 5.97161798 1.81032554 16.51755618 0 0 0
189 2 3 1.5 1.81032554 6.68977202 9.91602618 0 0 0
190 2 3 1.5 10.85106446 5.97161798 23.11908618 0 0 0
191 2 3 1.5 5.97161798 10.85106446 23.09162382 0 0 0
192 2 3 1.5 6.68977202 1.81032554 9.88856382 0 0 0
193 2 3 1.5 10.85106446 6.68977202 16.49009382 0 0 0
194 2 3 1.5 1.81032554 5.97161798 3.28703382 0 0 0
195 2 3 1.5 6.6905317 5.9708583 3.300765 0 0 0
196 2 3 1.5 5.9708583 6.6905317 16.503825 0 0 0
197 2 3 1.5 6.6905317 6.6905317 9.902295 0 0 0
198 2 3 1.5 5.9708583 5.9708583 23.105355 0 0 0

Velocities

1 0.006341879946893386 0.0045335863120109345 -0.009271311728486309
2 0.008767332636331858 -0.005055925324582237 -0.008366639633992319
3 0.008361132037610635 0.01115913109106332 0.0007674901201067427
4 0.004501221489105529 0.0057462132212387825 0.007530462127818265
5 -0.0038575347835043553 -0.0035961374202963772 0.004719807506926317
6 -0.005052354764892663 0.003727255889846131 0.0027000871308386345
7 0.0014320603435445342 0.003107734840950826 -0.003507320909973398
8 0.009468708969215174 0.0032363419258316563 -0.00013142036685841735
9 -0.008190757227181277 -0.0018262152015764619 -0.007520955690653337
10 0.010350941303800406 -0.008964100985575374 -0.009006108141750017
11 -0.0098196709798644 0.009163381446143943 0.008216126445766941
12 0.011009144382291601 -0.004146171086661814 0.0029420966787705575
13 0.009190089599933353 -0.0072935340855911765 -0.009640790332469739
14 0.0024501518980840366 0.004926353711340151 -0.007686330372748737
15 -0.010263211744956072 0.007886429575275212 -0.0057723842838068185
16 0.008065025248219913 -0.004859693419459009 0.0028186323605288743
17 0.0032538896084566456 0.00838843694643083 -0.0007897461741240362
18 0.007177304950301712 0.004099328107236926 -0.0020715409518549336
19 0.0007888369408453343 0.005317575508633644 0.004213513239480458
20 -0.003107273745536221 0.0012934423722472273 0.006639437920383013
21 0.009800352722198685 -0.007249443301983311 -0.0028139116434853766
22 0.005282286651167371 -0.007591269823876256 -0.0077290613596620985
23 0.005764012610592944 -0.00974789983902104 -0.011086241827742288
24 0.004321361094709807 -0.005314826220853417 0.006952577642830552
25 -0.0002009494897552446 -0.010248106259173212 -0.008048991010631218
26 -0.00935823548711981 -0.00028470325429257455 0.003189841721648765
27 -0.009713557315192497 -0.009528518052037969 0.005028844954623397
28 -0.005023003628732435 -0.002517635476603854 0.007845751518060932
29 -0.00649647548320528 -0.004362017008545654 0.0017569054429003375
30 0.0022626447091332338 -0.00944103405793643 0.006958491002371345
31 0.010190105959782824 0.002217011863282621 -0.000516948765324424
32 0.008852269489777895 0.010629689093882745 0.000895158339324169
33 0.0027792517796727126 -0.003816888873171984 -0.002736693643031156
34 -0.009587760414651507 -0.00888599653236096 -0.008977543667025158
35 0.003040869370004875 0.010197117977081418 0.005995528579249148
36 0.0004816261184722369 0.0037224283310720104 0.004251878662563294
37 -0.003511751048214859 -0.010904734366740965 -0.00864507918737845
38 0.006349037170623017 -0.011163127368862937 0.009287873422917585
39 0.002417972964601096 -0.0019363112212397585 -0.011263107356545636
40 -0.009181201281364206 -0.0061958819298341145 -0.005568822086657826
41 0.0030359061586915344 -0.00647349080181614 0.0008847300196226813
42 0.0055000392618456215 0.003390945391530727 -0.0048082391742719655
43 -0.006846473549223557 0.009124553277770744 0.0008432436533287546
44 -0.002051786808024407 0.008652814390494515 -0.0071369614225883365
45 -0.010227520474741849 0.007034854186108876 0.009959364755878506
46 0.008084649854835712 -0.00875934884976469 0.005964071855806415
47 0.005757145331655203 0.008325910583157554 -0.005981688065797973
48 0.005590106248045376 0.0042355504576608565 -0.004198039954681012
49 -0.00787639501383422 0.008718887134628128 -0.009087080175675223
50 0.008702419303503243 0.006200096834982661 -0.0031298450980277986
51 -0.009421971867424257 -0.0035647068007291626 0.008435426158011622
52 0.0034961064483800836 0.0078157559111091 0.007844849835577762
53 0.0005976416102862264 -0.004290324506993352 0.005263271273225567
54 -0.0030388089817422618 -0.004951391125656591 -0.003184789120968606
55 0.001579007268043126 0.003239595605920842 0.01005579171583548
56 0.004577860917941287 -0.01056904726735166 0.004328269450771602
57 -0.01003605974294904 -0.001145341851603386 8.841900595784389e-05
58 -0.006633719934527466 0.0028347267853977465 -0.008722625434984458
59 -0.0065464602317679395 0.0009947082479182419 -0.008228707346729374
60 -0.004028232302593896 0.007834407245183372 0.009836097387999966
61 0.005458594616704371 -0.003459673265308171 -0.0061615110721191125
62 0.00912730299488355 0.00538933507276883 0.008846999900337228
63 0.0014719768051289885 0.006522867046854732 -0.007012373668808635
64 -0.007658433983878989 0.0009553105500677859 -0.0029249774753313707
65 0.007489196218798182 -0.004636045072205127 0.0016470192618827611
66 0.002047251161823631 -0.0030231658245761274 0.01039852581525403
67 0.0024979715187776618 0.007677713536266758 0.0016308930262386714
68 -0.0020020562507905063 -0.0009761045284274889 -0.003372797657895363
69 0.001034158655068065 -0.009817566942822547 -0.0028004422485554095
70 0.009175461357769353 -0.008414759666483806 -0.009434812245400711
71 -0.006472494481673809 -0.0017898268555451232 0.00334322217843053
72 0.00955190218053412 -0.00020311448910923167 -0.004966846306214242
73 -0.0027131895269891047 -0.005444083770310764 -0.007355681037792875
74 0.007035208412842149 -0.0035068560452931148 0.0017905108937689288
75 0.01085209275416428 0.0038817709653909435 -0.009768511503328879
76 -0.008284886270589343 -0.0041957320034303755 -0.00682653168948001
77 0.0009704702535711776 0.009957503917535712 0.005815750246782079
78 0.004769656330666813 0.009124433719265189 -0.0011661761495963148
79 -0.000852029782214756 -0.0065968442642511055 -0.0031883164284139728
80 0.00904163479817527 -0.010519593362697822 -0.009950349381279354
81 0.0058857521782478515 -0.01055088837134738 -0.0019568896391659375
82 -0.007902979862860062 0.0068812213199795445 0.008700355943722348
83 0.006432097261730701 0.00540875941370764 0.001581479236882365
84 -0.009297914201247407 -0.009904802650998116 -0.0005571467384957969
85 0.0007057720425325704 0.01091358861848155 -0.011074868177378782
86 -0.004759948539037512 -0.00884096601268319 -0.00860521543928414
87 0.008878213747646265 0.0017009393249386166 0.002842788659279933
88 0.00877230013108388 0.0015063528116485746 0.0029853642492298355
89 0.002181224900631748 0.0015553089219284871 0.0025890099627701143
90 -0.0069855857758438925 0.007178292223874658 -0.0043852446212434
91 0.005089405587121307 -0.0010339033784811404 0.004144491368275805
92 -0.006225744499165305 0.007079935771980225 -0.011058732089036356
93 -0.0005450468255064125 -0.008831435314205412 -0.0041636282402058725
94 -0.00798476912164822 -0.010580481256427157 -0.009853228236044523
95 -0.008202559381859332 5.3222417527801964e-05 0.009289488032562195
96 0.007306022673421786 0.009334725537304836 -0.004334029870523293
97 -0.001843367997262568 -0.00374597806046235 0.009880522396684896
98 -0.004345900412223208 0.008473189857508816 -0.00026402332699491693
99 0.010269445160197625 0.000749277946806709 0.0050814152646524976
100 0.01082710809316782 0.006689770772416454 -0.00519697625780206
101 0.0007655724718791107 -0.007460546408402057 0.008967312878083994
102 -0.0010590137251441979 0.007669077257662755 -0.010026873942401334
103 0.01016173951289811 -0.007315274577305044 0.0031945734308124764
104 0.0030661948349043123 -0.00913168522074534 -1.0135950353097038e-05
105 0.005605223457560186 -0.008673844284515403 -0.003125848228177975
106 -0.00899266406584298 0.003234467820356135 -0.009380816505823317
107 0.011086117070241958 -0.0008904908168301918 -0.010628295070838541
108 0.002984176881622938 -0.00818836155648492 -0.008888552065033377
109 0.008060186640905392 0.0028126117979039448 -0.0021814122450412726
110 0.0008236631731547365 -0.01007269194684366 0.003311670678453234
111 -0.009014182410808482 -0.0024452426046413013 0.0008745482453073953
112 -0.009884179538204921 -0.007094618352598638 -0.0037682541470053276
113 0.006956628035964837 0.010714425065779052 0.0011361843599556718
114 0.004441165492952295 0.005855182108602848 0.006797636139443495
115 -0.0012055301043381538 -0.007475303160419 0.005686222198795996
116 0.00816382346568428 0.009238547982192256 0.0033645062861124802
117 0.01129478658089266 -0.009075770235622343 0.005307846310222371
118 -0.010321778173047838 0.0025030345148681792 0.0009477253962015607
119 -0.00367400680736854 -0.0013478441221952127 0.0006830291536305484
120 -0.002684838071539186 0.003836241625664028 0.003724186291082031
121 0.004791702131704799 0.001420403766416146 0.004604909256516542
122 -0.010528013507750577 0.007102119914848777 0.005811043692562172
123 -0.00758731667891855 -0.005205652739069451 -0.004810364829185527
124 0.0019250334948311138 -0.010255592859458033 -0.0003841144688039876
125 -0.005719862292790451 0.010440845646965742 0.008566672108389321
126 0.006726030221070909 0.006329808478833302 -0.0034383165374096357
127 -0.009955614522754265 -0.0062728959141625604 -0.009518570583045713
128 0.009717578359342713 0.0032295992301720213 -0.0022124333776861113
129 -0.008828537661572603 0.0028688154639800495 0.00798843079445136
130 0.010903801880340907 0.005257965678752164 0.0035423588874512377
131 -0.0031103121167118447 -0.005275072800187678 0.007627481127882481
132 -0.0039323161703384 -0.004257862870482578 -0.005371368593557624
133 0.006581271061818704 -0.0015296709663667968 -0.007209582263819201
134 -0.007087796694498121 0.0024688656885736553 0.005138321155642537
135 0.008055226079335514 0.006438223190177942 0.006408055269390858
136 0.00598153275966061 -0.0018176719334423942 0.005489441187459401
137 -0.0009153168977343395 0.0010259197901700302 0.006458529943921775
138 -0.0021049228383804627 0.007111889724327173 -0.006173790508781774
139 -0.006727969810851124 0.006169548940066916 0.007965610283527278
140 0.004398655847233579 -0.006009003101524555 0.006061642217178915
141 -0.005999274747777338 -0.005131871480652209 0.004252704697307014
142 0.0022920680854651592 0.0038210871352377536 -0.0004039134400460241
143 0.008062032749226221 0.0032908618261914256 0.004883608461426426
144 -0.006928842821430111 0.005376789516934639 0.00046089115545922937
145 0.0005820293997204119 -0.004938610815579292 -0.005348164582944076
146 -0.0009863758793018649 -0.0009993237842165414 0.006460505820888536
147 -0.0024812335772211283 -0.0035862131643134183 0.004231277415220056
148 -0.005195075298609029 -0.006863884280095706 -0.00439229807738648
149 -0.006100665801909246 0.0036173026027036975 0.0002466900167532895
150 -0.005914892478407864 0.00251618320642545 -0.001000922761873976
151 -0.0007884758370008282 0.00020407017016881886 -0.002984441632183293
152 -0.004801771836439782 0.003959482778972201 -0.008537136078403769
153 0.0034300709459270827 0.0036488964439955235 -0.006113618098447412
154 -0.0029565168967238304 0.0015272667193484727 0.00279276393101238
155 -0.0011812625651526816 -0.001934548258538558 0.005864228068440012
156 0.0009637443966137102 -0.0041657675938807925 0.0032737062394679714
157 0.004853697584424235 0.0013184297476672437 0.0024892099392374817
158 0.0018877853899443786 -0.006813442807535642 0.003755658260049863
159 -0.005725985478454964 0.00370545155199677 0.004031584341379588
160 -0.0029490754170361996 -0.007743283847367998 -0.007115860782213094
161 -0.004834530976201301 0.0075270569736274 0.00268062274963916
162 -0.005185102430600112 -0.007174266250138748 0.0014659813422126286
163 -5.92861849829996e-05 -0.0027847938680209705 0.006150547609960998
164 -0.0062932721629522384 0.007422622254321999 -0.006140208818733885
165 0.0035290586574919917 0.004884056215872653 -0.002236032214702016
166 -0.003820349462697587 -0.008240704514469954 -0.0046311578882031424
167 -0.007224953355161603 -0.0007914628691546539 0.007151913670988958
168 -0.0023562189767659535 -0.0015205057631439958 -0.004185097565633196
169 0.00028378110009079816 0.0033410177273959724 -0.00856047043290225
170 -0.0025243635394665096 -0.006396677860005424 0.005877710750724736
171 -0.007526938878326637 -0.004946037907224916 0.004164205805809611
172 -0.0073743048673184965 0.00792329124867543 -0.004407587975943354
173 0.005601008506176512 0.0006298718637247737 -0.0001137358232563339
174 -0.0015220626075894577 -0.0035396877727261996 -0.0030610267791811208
175 0.0010493469596156207 0.0071993247139531015 0.002404021149737136
176 -0.002523015677074657 -0.000535592099730081 -0.008084491725254018
177 0.004049545138799683 0.0038404311070377567 0.0056539088703855
178 -0.007459150791341696 -0.007517407203551546 -0.005897974026798132
179 -0.005793095959037595 0.000872914192337845 0.004136378495869208
180 -0.004879654167079323 0.0048012735683518265 0.00020832004888166904
181 0.0041061184273431415 -0.0025012435397721655 0.0027286759636175723
182 -0.0035917331558321885 0.005437824185423479 0.001931879412289465
183 0.005013721426740948 0.004049154030027305 0.004040646501066481
184 -0.0017732946957292467 0.005696846678908782 0.006081625385564735
185 -0.005990912879117681 0.0010665554054827102 0.0009313806608698609
186 -0.001138896631396716 0.004827327075119808 0.001486234348942814
187 0.004484248737405074 0.00519351794551584 -0.00676835457505079
188 0.008726494322371625 0.00392561105258402 -0.006876367858450116
189 0.006930485865770227 -0.0055784041610773775 0.005597489228927599
190 0.0014648704224297917 0.005248181041632142 0.005162679033697937
191 -0.0016797858801848894 -0.0011896116686816204 -0.0011448510612968072
192 -0.0016804100553420656 0.005112313924249755 0.005415531692362758
193 -0.00047182897722499167 -0.0011148322678733902 -0.0037602711467377772
194 0.0035554831489757383 -0.004395326825770974 0.007332311567258842
195 0.006952480904686594 -0.00534140920471637 -0.00782839459439463
196 -0.007382403622479512 0.006147012934229793 -0.0013634157099841175
197 0.0024473431075994314 -0.006091859550317378 0.007265616502291266
198 -0.0056906036723208715 -0.006160281297619798 -0.0008129431572439951

Bonds

1 1 1 2
2 1 2 3
3 1 3 4
4 1 4 5
5 1 5 6

Angles

1 1 1 2 3
2 1 2 3 4
3 1 3 4 5
4 1 4 5 6

Dihedrals

1 1 1 2 3 4
2 1 2 3 4 5
3 1 3 4 5 6
