LAMMPS (29 Aug 2024)
  using 4 OpenMP thread(s) per MPI task
units real
boundary p p p
atom_style full

read_data init.data
Reading data file ...
  orthogonal box = (0 0 0) to (12.66139 12.66139 26.40612)
  1 by 1 by 1 MPI processor grid
  reading atoms ...
  198 atoms
  scanning bonds ...
  1 = max bonds/atom
  scanning angles ...
  1 = max angles/atom
  scanning dihedrals ...
  1 = max dihedrals/atom
  orthogonal box = (0 0 0) to (12.66139 12.66139 26.40612)
  1 by 1 by 1 MPI processor grid
  reading bonds ...
  5 bonds
  reading angles ...
  4 angles
  reading dihedrals ...
  3 dihedrals
Finding 1-2 1-3 1-4 neighbors ...
  special bond factors lj:    0        0        0       
  special bond factors coul:  0        0        0       
     2 = max # of 1-2 neighbors
     2 = max # of 1-3 neighbors
     3 = max # of 1-4 neighbors
     5 = max # of special neighbors
  special bonds CPU = 0.000 seconds
  read_data CPU = 0.003 seconds

pair_style lj/cut 6.0

mass 1 15.035  # CH3
mass 2 14.027  # CH2
mass 3 28.084999992775295 # Si
mass 4 15.998999995884349 # O

# Convert K to kcal/mol with 1.38064852E-23*6.022140857E23/4184.0
pair_coeff 1 1  0.19474595277771530  3.75
pair_coeff 2 2  0.09141136558953984  3.095
pair_coeff 3 3  0.04371847919499732  2.30
pair_coeff 4 4  0.10532179078794810  3.30

pair_modify mix arithmetic
special_bonds lj 0.0 0.0 0.0

bond_style harmonic
bond_coeff 1  337.0  1.54  # CHx-CHy

angle_style harmonic
angle_coeff 1 62.10011249289392 114.0 # CHx-CH2-CHy

dihedral_style opls
dihedral_coeff 1 1.411033788054536 -0.2710148269369879 3.1450279051441163 0.0 # CHx-(CH2)-(CH2)-CHy

group adsorbate type 1 2
6 atoms in group adsorbate

#minimize 0.0 1.0e-8 1000 100000
#reset_timestep 0

timestep 0.5
velocity all create 823.15 5463576


write_data  data.start
System init for write_data ...
Generated 6 of 6 mixed pair_coeff terms from arithmetic mixing rule
Neighbor list info ...
  update: every = 1 steps, delay = 0 steps, check = yes
  max neighbors/atom: 2000, page size: 100000
  master list distance cutoff = 8
  ghost atom cutoff = 8
  binsize = 4, bins = 4 4 7
  1 neighbor lists, perpetual/occasional/extra = 1 0 0
  (1) pair lj/cut, perpetual
      attributes: half, newton on
      pair build: half/bin/newton
      stencil: half/bin/3d
      bin: standard

thermo_style custom time etotal pe epair temp press density cella cellb cellc cellalpha cellbeta cellgamma
thermo 1

dump 1 all custom 1 prod.lammpstrj id element xu yu zu fx fy fz vx vy vz
dump_modify 1 element C C Si O
dump_modify 1 sort id

fix 1 adsorbate nvt temp 823.15 823.15 $(100.0*dt)
fix 1 adsorbate nvt temp 823.15 823.15 50
run 5000

CITE-CITE-CITE-CITE-CITE-CITE-CITE-CITE-CITE-CITE-CITE-CITE-CITE

Your simulation uses code contributions which should be cited:

- Type Label Framework: https://doi.org/10.1021/acs.jpcb.3c08419

@Article{Gissinger24,
 author = {Jacob R. Gissinger, Ilia Nikiforov, Yaser Afshar, Brendon Waters, Moon-ki Choi, Daniel S. Karls, Alexander Stukowski, Wonpil Im, Hendrik Heinz, Axel Kohlmeyer, and Ellad B. Tadmor},
 title = {Type Label Framework for Bonded Force Fields in LAMMPS},
 journal = {J. Phys. Chem. B},
 year =    2024,
 volume =  128,
 number =  13,
 pages =   {3282–-3297}
}
